# vtk DataFile Version 3.0
vtk output
ASCII
DATASET POLYDATA
POINTS 4 float
0 0 0
0.01 0 0
0.01 0.01 0
0.01 0.01 0.00001
POLYGONS 2 8
3 0 1 2
3 0 1 3
POINT_DATA 4
VECTORS normal double
0 0 2
0 0 0
0 0 1
0 0 -1
CELL_DATA 2
SCALARS color double
LOOKUP_TABLE default
0 1
SCALARS cool double
LOOKUP_TABLE default
1 0
