# vtk DataFile Version 3.0
vtk output
ASCII
DATASET POLYDATA
POINTS 4 float
0 0 0
0.01 0 0
0.01 0.01 0
0.01 0.01 0.00001
POLYGONS 2 8
3 0 1 2
3 0 1 3
CELL_DATA 2
SCALARS color double
LOOKUP_TABLE default
0 1
